18
Lattice="7.7869367 0.0 0.0 -2.5956455660912527 7.341594327190635 0.0 -2.5956455660912527 -3.67079716237468 6.3580071923315495" Properties=species:S:1:pos:R:3:forces:R:3:magmoms:R:1 spacegroup="P 1" unit_cell=conventional occupancy="_JSON {\"0\": {\"Si\": 1}, \"1\": {\"Si\": 1}, \"2\": {\"Si\": 1}, \"3\": {\"Si\": 1}, \"4\": {\"Si\": 1}, \"5\": {\"Si\": 1}, \"6\": {\"O\": 1}, \"7\": {\"O\": 1}, \"8\": {\"O\": 1}, \"9\": {\"O\": 1}, \"10\": {\"O\": 1}, \"11\": {\"O\": 1}, \"12\": {\"O\": 1}, \"13\": {\"O\": 1}, \"14\": {\"O\": 1}, \"15\": {\"O\": 1}, \"16\": {\"O\": 1}, \"17\": {\"O\": 1}}" energy=-133.5084808190632 dipole="-8.508848431909443e-07 -4.06441171505782e-07 1.155005046168367e-07" magmom=0.0 pbc="T T T"
Si       1.29782278       4.58849645       1.58950180      -0.00000000      -0.00000000      -0.00000000       0.00000000
Si       3.89346835       2.75309787       1.58950180      -0.00000000      -0.00000000      -0.00000000       0.00000000
Si      -1.29782278       3.67079716       3.17900360      -0.00000000       0.00000000       0.00000000       0.00000000
Si      -1.29782278       0.91769929       4.76850539       0.00000000       0.00000000       0.00000000       0.00000000
Si       1.29782278      -0.91769929       4.76850539      -0.00000000      -0.00000000       0.00000000       0.00000000
Si       3.89346835       0.00000000       3.17900360      -0.00000000      -0.00000000       0.00000000       0.00000000
O        4.20809174       2.69078976       0.00000000       0.00766653       0.02292896       0.00000000       0.00000000
O       -0.98319939       2.32540228       4.02771490       0.00766653      -0.01146448      -0.01985706       0.00000000
O        4.20809174      -1.34539488       2.33029229       0.00766653      -0.01146448       0.01985706       0.00000000
O        1.13420367       4.86435686       0.00000000       0.01906212       0.01487106      -0.00000000       0.00000000
O       -2.67114770       3.51896198       2.33029229      -0.01336432       0.00340658       0.01985706       0.00000000
O        2.52014343      -0.15183518       4.02771490      -0.01336432       0.00340658      -0.01985706       0.00000000
O        2.52014343       3.56402102       1.88236433      -0.01336432      -0.01890001      -0.00697834       0.00000000
O        5.11578900       0.25861133       4.21265662      -0.01336432       0.01549343       0.01287872       0.00000000
O        1.13420367      -2.43217843       4.21265662       0.01906212      -0.00743553       0.01287872       0.00000000
O       -0.07550214      -0.10677615       4.47564287      -0.01336432      -0.01890001       0.00697834       0.00000000
O        3.72984924       1.23861873       2.14535058       0.01906212      -0.00743553      -0.01287872       0.00000000
O       -0.07550214       3.92940849       2.14535058      -0.01336432       0.01549343      -0.01287872       0.00000000
