18
Lattice="7.65326101 0.0 0.0 -2.7067798856552265 7.158613464756879 0.0 -2.7067806775720533 -3.917289102599732 5.9917099971900685" Properties=species:S:1:pos:R:3:forces:R:3:magmoms:R:1 spacegroup="P 1" unit_cell=conventional occupancy="_JSON {\"0\": {\"Si\": 1}, \"1\": {\"Si\": 1}, \"2\": {\"Si\": 1}, \"3\": {\"Si\": 1}, \"4\": {\"Si\": 1}, \"5\": {\"Si\": 1}, \"6\": {\"O\": 1}, \"7\": {\"O\": 1}, \"8\": {\"O\": 1}, \"9\": {\"O\": 1}, \"10\": {\"O\": 1}, \"11\": {\"O\": 1}, \"12\": {\"O\": 1}, \"13\": {\"O\": 1}, \"14\": {\"O\": 1}, \"15\": {\"O\": 1}, \"16\": {\"O\": 1}, \"17\": {\"O\": 1}}" energy=-133.64995260537682 dipole="1.5598019067491024e-05 -4.0113830164475656e-05 1.8685309941248713e-07" magmom=0.0 pbc="T T T"
Si      -0.21191649      -2.67413902       4.70374891       0.00393789      -0.00115680      -0.00765058       0.00000000
Si      -2.42635306       4.56301814       1.61643390      -0.00247478      -0.00819519      -0.00144598       0.00000000
Si       2.45161694       5.91546338       1.28796109      -0.00393789       0.00115680       0.00765058       0.00000000
Si       4.66605350      -1.32169377       4.37527610       0.00247478       0.00819519       0.00144598       0.00000000
Si       5.12624461       1.71175159       0.33571848      -0.00679025       0.00164250      -0.00515473       0.00000000
Si      -2.88654416       1.52957277       5.65599152       0.00679025      -0.00164250       0.00515473       0.00000000
O        4.60633042      -1.60532292       2.77607683       0.02268990       0.00971923       0.00176318       0.00000000
O        3.82756494       5.10281525       0.98166865      -0.00536423      -0.00604499      -0.00868118       0.00000000
O        0.87379385      -2.19976564       5.81624778       0.01161925      -0.01986431      -0.00909977       0.00000000
O       -2.36662997       4.84664728       3.21563316      -0.02268990      -0.00971923      -0.00176318       0.00000000
O        5.43673011       0.35812720       1.18350667       0.00180516       0.00641745       0.00981008       0.00000000
O       -1.17958736       5.36637879       0.94738068       0.00375709       0.00335050       0.01073957       0.00000000
O        3.41928781      -2.12505442       5.04432932      -0.00375709      -0.00335050      -0.01073957       0.00000000
O       -1.58786450      -1.86149089       5.01004134       0.00536423       0.00604499       0.00868118       0.00000000
O       -3.19702966       2.88319717       4.80820333      -0.00180516      -0.00641745      -0.00981008       0.00000000
O        5.37041686       2.96480494       1.34154599      -0.00106617       0.01201898      -0.02160581       0.00000000
O       -3.13071642       0.27651942       4.65016400       0.00106617      -0.01201898       0.02160581       0.00000000
O        1.36590931       5.44108284       0.17546221      -0.01161925       0.01986431       0.00909977       0.00000000
