9
Lattice="5.32912045 0.0 0.0 -0.7043055912903385 5.28237431508648 0.0 -0.7043052452779746 -0.8044438645215436 5.220761002353621" Properties=species:S:1:pos:R:3:forces:R:3:magmoms:R:1 spacegroup="P 1" unit_cell=conventional occupancy="_JSON {\"0\": {\"Si\": 1}, \"1\": {\"Si\": 1}, \"2\": {\"Si\": 1}, \"3\": {\"O\": 1}, \"4\": {\"O\": 1}, \"5\": {\"O\": 1}, \"6\": {\"O\": 1}, \"7\": {\"O\": 1}, \"8\": {\"O\": 1}}" energy=-66.72766628443608 dipole="2.3828585653401648e-07 -1.9921000932975927e-07 -4.880807011074514e-08" magmom=0.0 pbc="T T T"
Si       0.66062228       3.37681716       2.61038050       0.02129462      -0.01864383       0.00000000       0.00000000
Si       3.25988726       2.41224678       1.48580041      -0.02129462      -0.00283924       0.01842637       0.00000000
Si       1.96025488       0.92783175       3.73496059      -0.00000000       0.02148307      -0.01842637       0.00000000
O        3.11646293       1.22668397       2.61038050      -0.01377753       0.01206248       0.00000000       0.00000000
O        0.80404675       2.08480663       3.61085457       0.01377753       0.00183697      -0.01192179       0.00000000
O        1.96025474       3.40540509       1.60990643       0.00000000      -0.01389946       0.01192179       0.00000000
O        1.29556994      -0.53779811       3.49025649      -0.02670392      -0.00356047       0.02310707       0.00000000
O       -0.70430548       3.26480134       1.73050451      -0.00000000       0.02694023      -0.02310707       0.00000000
O        3.32924514       1.75092723       0.00000000       0.02670392      -0.02337977       0.00000000       0.00000000
