6
Lattice="5.13584237 0.0 0.0 0.15785281555277758 5.133415952181283 0.0 -2.646847592991795 -2.566707976299526 3.575344016085885" Properties=species:S:1:pos:R:3:forces:R:3:magmoms:R:1 spacegroup="P 1" unit_cell=conventional occupancy="_JSON {\"0\": {\"Si\": 1}, \"1\": {\"Si\": 1}, \"2\": {\"O\": 1}, \"3\": {\"O\": 1}, \"4\": {\"O\": 1}, \"5\": {\"O\": 1}}" energy=-44.49512330342069 dipole="9.852381752903257 -10.160000036261467 -4.058641944015008e-09" magmom=0.0 pbc="T T T"
Si       2.56792118      -0.00000000       1.78767201      -0.00000000       0.00000000       0.00000000       0.00000000
Si       0.00000000       0.00000000       0.00000000       0.00000000       0.00000000       0.00000000       0.00000000
O        2.38843747       1.50913702       2.36699930      -0.01292857       0.01337035      -0.01861136       0.00000000
O        2.30951107      -1.05757095       2.99601672      -0.01297545       0.01334246       0.01859875       0.00000000
O        4.07082869      -0.22578303       1.20834472       0.01296667      -0.01333340       0.01861136       0.00000000
O        1.50290751      -0.22578303       0.57932729       0.01293735      -0.01337941      -0.01859875       0.00000000
