12
Lattice="5.0904917 0.0 0.0 -2.5116010915044376 4.4277495079241564 0.0 0.11841194940070159 0.2033038737525802 8.529724004566077" Properties=species:S:1:pos:R:3:forces:R:3:magmoms:R:1 spacegroup="P 1" unit_cell=conventional occupancy="_JSON {\"0\": {\"Si\": 1}, \"1\": {\"Si\": 1}, \"2\": {\"Si\": 1}, \"3\": {\"Si\": 1}, \"4\": {\"O\": 1}, \"5\": {\"O\": 1}, \"6\": {\"O\": 1}, \"7\": {\"O\": 1}, \"8\": {\"O\": 1}, \"9\": {\"O\": 1}, \"10\": {\"O\": 1}, \"11\": {\"O\": 1}}" energy=-89.22025336554938 dipole="-2.7864654941064115 -4.7840262613263755 9.32096888924384" magmom=0.0 pbc="T T T"
Si       0.04534835       3.46547551       2.45880582       0.01720149      -0.01879697      -0.00842600       0.00000000
Si       2.57863331       1.96169549       1.39090044       0.01664698      -0.02181829      -0.00754299       0.00000000
Si       3.05112889       1.85092946       6.72366716      -0.02484015       0.00569246      -0.00842403       0.00000000
Si       0.49322922       3.31244905       5.65576261      -0.02719968       0.00371542      -0.00755199       0.00000000
O        2.93943311       2.08811191       8.32148716       0.04161398       0.02544202      -0.00272941       0.00000000
O        2.02773375       2.85503352       5.95050138      -0.03226546      -0.03429581      -0.00092956       0.00000000
O       -0.52098988       2.16613635       6.21801767      -0.00911584       0.02826798      -0.02431049       0.00000000
O        0.30675984       3.48534480       4.05662522       0.00159890       0.04874865      -0.00270864       0.00000000
O        2.08196822       0.51393988       1.95315851       0.02908835       0.00602882      -0.02432061       0.00000000
O       -1.12405773       2.38242487       2.13145459       0.00288847       0.00030166       0.01334106       0.00000000
O        1.42366142       3.07073640       1.68564136      -0.01389453      -0.04498995      -0.00093620       0.00000000
O        2.68605949       0.29940169       6.39631959      -0.00116437       0.00266248       0.01334108       0.00000000
