12
Lattice="6.70432632 0.0 0.0 -4.8237222931436055 4.656145900170455 0.0 -0.9403020130238121 -2.3280729490840195 6.216421790153186" Properties=species:S:1:pos:R:3:forces:R:3:magmoms:R:1 spacegroup="P 1" unit_cell=conventional occupancy="_JSON {\"0\": {\"Si\": 1}, \"1\": {\"Si\": 1}, \"2\": {\"Si\": 1}, \"3\": {\"Si\": 1}, \"4\": {\"O\": 1}, \"5\": {\"O\": 1}, \"6\": {\"O\": 1}, \"7\": {\"O\": 1}, \"8\": {\"O\": 1}, \"9\": {\"O\": 1}, \"10\": {\"O\": 1}, \"11\": {\"O\": 1}}" energy=-89.29289402656975 dipole="12.258167255349148 -4.9510386231821135 4.400665179143067e-09" magmom=0.0 pbc="T T T"
Si       3.37538173       0.09215641       0.92024091      -0.00506382      -0.02251173       0.01904877       0.00000000
Si       5.34564682      -0.90669668       3.09522683      -0.00913510       0.02824664       0.00373542       0.00000000
Si       1.28817075       0.73210901       3.12119496       0.02618990       0.01397897      -0.00373542       0.00000000
Si       3.39946487       0.08242659       5.29618088      -0.01199098      -0.01971388      -0.01904877       0.00000000
O       -3.20877377       1.50463047       6.07454914      -0.03172577       0.01785615      -0.01614163       0.00000000
O        0.73630565       2.20184788       3.53874629      -0.01671783       0.00171008       0.03610414       0.00000000
O        0.05910619      -0.23248873       2.67767550       0.01321603      -0.01038012      -0.03610414       0.00000000
O        2.03956560       0.05465474       4.39921978      -0.01746140      -0.02419207       0.03040529       0.00000000
O       -0.48919547       3.78387235       1.81720201      -0.00423799      -0.02953297      -0.03040529       0.00000000
O        2.32022386       0.89229701       1.87066867      -0.01734287       0.03824941      -0.00713063       0.00000000
O        4.29395444       1.18216093       0.14187265       0.03522757      -0.00918611       0.01614163       0.00000000
O       -1.98998996      -0.07467820       4.34575312       0.03904225       0.01547562       0.00713063       0.00000000
